<?xml version="1.0"?>

<!-- generated on Sat 02 Mar 2013 11:18:38 AM HKT by SUMO gui Version 0.12.3
<?xml version="1.0" encoding="iso-8859-1"?>

<configuration xmlns:xsi="http://www.w3.org/2001/XMLSchema-instance" xsi:noNamespaceSchemaLocation="http://sumo.sf.net/xsd/sumo-gui.exeConfiguration.xsd">

    <input>
        <net-file value="/home/anzizhao/src/gpsr/scence/afton_oak_houston/cut_area/afton_oak_area3.net.xml"/>
        <route-files value="/home/anzizhao/src/gpsr/scence/afton_oak_houston/cut_area/afton_oak_area3.rou.xml"/>
    </input>

    <output>
        <netstate-dump value="/home/anzizhao/src/gpsr/scence/afton_oak_houston/cut_area/afton_oak_area3.sumo.tr"/>
        <emissions-output value="/home/anzizhao/src/gpsr/scence/afton_oak_houston/cut_area/output-emissions.xml"/>
        <tripinfo-output value="/home/anzizhao/src/gpsr/scence/afton_oak_houston/cut_area/output-tripinfos.xml"/>
        <vehroute-output value="/home/anzizhao/src/gpsr/scence/afton_oak_houston/cut_area/output-vehroutes.xml"/>
    </output>

    <time>
        <begin value="0"/>
        <end value="300"/>
    </time>

    <processing>
        <route-steps value="-1"/>
        <time-to-teleport value="-1"/>
    </processing>

    <report>
        <print-options value="false"/>
    </report>

    <random_number>
        <srand value="23423"/>
    </random_number>

    <gui_only>
        <gui-settings-file value=""/>
    </gui_only>

</configuration>
-->

<sumo-netstate>
    <timestep time="0.00">
        <edge id="96033765_1">
            <lane id="96033765_1_0">
                <vehicle id="flow0_0" pos="7.60" speed="0.00"/>
            </lane>
            <lane id="96033765_1_1"/>
        </edge>
        <edge id="96033779_1">
            <lane id="96033779_1_0">
                <vehicle id="flow2_0" pos="7.60" speed="0.00"/>
            </lane>
            <lane id="96033779_1_1"/>
        </edge>
        <edge id="96033902_1">
            <lane id="96033902_1_0">
                <vehicle id="flow1_0" pos="7.60" speed="0.00"/>
            </lane>
            <lane id="96033902_1_1"/>
        </edge>
    </timestep>
    <timestep time="1.00">
        <edge id="96033765_1">
            <lane id="96033765_1_0">
                <vehicle id="flow0_0" pos="10.14" speed="2.54"/>
            </lane>
            <lane id="96033765_1_1"/>
        </edge>
        <edge id="96033779_1">
            <lane id="96033779_1_0">
                <vehicle id="flow2_0" pos="9.31" speed="1.71"/>
            </lane>
            <lane id="96033779_1_1"/>
        </edge>
        <edge id="96033902_1">
            <lane id="96033902_1_0">
                <vehicle id="flow1_0" pos="9.08" speed="1.48"/>
            </lane>
            <lane id="96033902_1_1"/>
        </edge>
    </timestep>
    <timestep time="2.00">
        <edge id="96033765_1">
            <lane id="96033765_1_0">
                <vehicle id="flow0_0" pos="15.14" speed="5.00"/>
            </lane>
            <lane id="96033765_1_1"/>
        </edge>
        <edge id="96033779_1">
            <lane id="96033779_1_0">
                <vehicle id="flow2_0" pos="12.83" speed="3.52"/>
            </lane>
            <lane id="96033779_1_1"/>
        </edge>
        <edge id="96033902_1">
            <lane id="96033902_1_0">
                <vehicle id="flow1_0" pos="12.51" speed="3.43"/>
            </lane>
            <lane id="96033902_1_1"/>
        </edge>
    </timestep>
    <timestep time="3.00">
        <edge id="96033765_1">
            <lane id="96033765_1_0">
                <vehicle id="flow0_0" pos="21.92" speed="6.78"/>
            </lane>
            <lane id="96033765_1_1"/>
        </edge>
        <edge id="96033779_1">
            <lane id="96033779_1_0">
                <vehicle id="flow2_0" pos="18.53" speed="5.70"/>
            </lane>
            <lane id="96033779_1_1"/>
        </edge>
        <edge id="96033902_1">
            <lane id="96033902_1_0">
                <vehicle id="flow1_0" pos="17.53" speed="5.02"/>
            </lane>
            <lane id="96033902_1_1"/>
        </edge>
    </timestep>
    <timestep time="4.00">
        <edge id="96033765_1">
            <lane id="96033765_1_0">
                <vehicle id="flow0_0" pos="30.28" speed="8.36"/>
            </lane>
            <lane id="96033765_1_1"/>
        </edge>
        <edge id="96033779_1">
            <lane id="96033779_1_0">
                <vehicle id="flow2_0" pos="26.61" speed="8.08"/>
            </lane>
            <lane id="96033779_1_1"/>
        </edge>
        <edge id="96033902_1">
            <lane id="96033902_1_0">
                <vehicle id="flow1_0" pos="24.09" speed="6.56"/>
            </lane>
            <lane id="96033902_1_1"/>
        </edge>
    </timestep>
    <timestep time="5.00">
        <edge id=":node89_7">
            <lane id=":node89_7_0">
                <vehicle id="flow2_0" pos="3.69" speed="9.88"/>
            </lane>
        </edge>
        <edge id="96033765_1">
            <lane id="96033765_1_0">
                <vehicle id="flow0_0" pos="40.31" speed="10.03"/>
            </lane>
            <lane id="96033765_1_1"/>
        </edge>
        <edge id="96033902_1">
            <lane id="96033902_1_0">
                <vehicle id="flow1_0" pos="32.48" speed="8.39"/>
            </lane>
            <lane id="96033902_1_1"/>
        </edge>
    </timestep>
    <timestep time="6.00">
        <edge id="96033765_1">
            <lane id="96033765_1_0">
                <vehicle id="flow0_0" pos="52.50" speed="12.19"/>
            </lane>
            <lane id="96033765_1_1"/>
        </edge>
        <edge id="96033780_1">
            <lane id="96033780_1_0"/>
            <lane id="96033780_1_1">
                <vehicle id="flow2_0" pos="10.03" speed="11.17"/>
            </lane>
        </edge>
        <edge id="96033902_1">
            <lane id="96033902_1_0">
                <vehicle id="flow1_0" pos="42.87" speed="10.39"/>
            </lane>
            <lane id="96033902_1_1"/>
        </edge>
    </timestep>
    <timestep time="7.00">
        <edge id="96033765_1">
            <lane id="96033765_1_0"/>
            <lane id="96033765_1_1">
                <vehicle id="flow0_0" pos="66.79" speed="14.29"/>
            </lane>
        </edge>
        <edge id="96033783_1">
            <lane id="96033783_1_0"/>
            <lane id="96033783_1_1">
                <vehicle id="flow2_0" pos="1.26" speed="13.02"/>
            </lane>
        </edge>
        <edge id="96033902_1">
            <lane id="96033902_1_0">
                <vehicle id="flow1_0" pos="54.63" speed="11.76"/>
            </lane>
            <lane id="96033902_1_1"/>
        </edge>
    </timestep>
    <timestep time="8.00">
        <edge id="96033765_1">
            <lane id="96033765_1_0">
                <vehicle id="flow0_1" pos="7.60" speed="0.00"/>
            </lane>
            <lane id="96033765_1_1">
                <vehicle id="flow0_0" pos="82.64" speed="15.85"/>
            </lane>
        </edge>
        <edge id="96033779_1">
            <lane id="96033779_1_0">
                <vehicle id="flow2_1" pos="7.60" speed="0.00"/>
            </lane>
            <lane id="96033779_1_1"/>
        </edge>
        <edge id="96033783_1">
            <lane id="96033783_1_0"/>
            <lane id="96033783_1_1">
                <vehicle id="flow2_0" pos="16.08" speed="14.82"/>
            </lane>
        </edge>
        <edge id="96033902_1">
            <lane id="96033902_1_0">
                <vehicle id="flow1_1" pos="7.60" speed="0.00"/>
                <vehicle id="flow1_0" pos="62.93" speed="8.30"/>
            </lane>
            <lane id="96033902_1_1"/>
        </edge>
    </timestep>
    <timestep time="9.00">
        <edge id="96033765_1">
            <lane id="96033765_1_0">
                <vehicle id="flow0_1" pos="9.17" speed="1.57"/>
            </lane>
            <lane id="96033765_1_1">
                <vehicle id="flow0_0" pos="99.64" speed="17.00"/>
            </lane>
        </edge>
        <edge id="96033779_1">
            <lane id="96033779_1_0">
                <vehicle id="flow2_1" pos="9.02" speed="1.42"/>
            </lane>
            <lane id="96033779_1_1"/>
        </edge>
        <edge id="96033783_1">
            <lane id="96033783_1_0"/>
            <lane id="96033783_1_1">
                <vehicle id="flow2_0" pos="31.05" speed="14.97"/>
            </lane>
        </edge>
        <edge id="96033902_1">
            <lane id="96033902_1_0">
                <vehicle id="flow1_1" pos="9.52" speed="1.92"/>
                <vehicle id="flow1_0" pos="68.55" speed="5.61"/>
            </lane>
            <lane id="96033902_1_1"/>
        </edge>
    </timestep>
    <timestep time="10.00">
        <edge id=":node58_5">
            <lane id=":node58_5_0">
                <vehicle id="flow1_0" pos="3.83" speed="7.97"/>
            </lane>
        </edge>
        <edge id="96033765_1">
            <lane id="96033765_1_0">
                <vehicle id="flow0_1" pos="12.91" speed="3.74"/>
            </lane>
            <lane id="96033765_1_1">
                <vehicle id="flow0_0" pos="117.89" speed="18.25"/>
            </lane>
        </edge>
        <edge id="96033779_1">
            <lane id="96033779_1_0">
                <vehicle id="flow2_1" pos="12.96" speed="3.93"/>
            </lane>
            <lane id="96033779_1_1"/>
        </edge>
        <edge id="96033783_1">
            <lane id="96033783_1_0"/>
            <lane id="96033783_1_1">
                <vehicle id="flow2_0" pos="42.51" speed="11.46"/>
            </lane>
        </edge>
        <edge id="96033902_1">
            <lane id="96033902_1_0">
                <vehicle id="flow1_1" pos="12.80" speed="3.28"/>
            </lane>
            <lane id="96033902_1_1"/>
        </edge>
    </timestep>
    <timestep time="11.00">
        <edge id=":node88_1">
            <lane id=":node88_1_0">
                <vehicle id="flow0_0" pos="4.77" speed="19.88"/>
            </lane>
        </edge>
        <edge id="96033765_1">
            <lane id="96033765_1_0">
                <vehicle id="flow0_1" pos="18.72" speed="5.81"/>
            </lane>
            <lane id="96033765_1_1"/>
        </edge>
        <edge id="96033779_1">
            <lane id="96033779_1_0">
                <vehicle id="flow2_1" pos="18.53" speed="5.58"/>
            </lane>
            <lane id="96033779_1_1"/>
        </edge>
        <edge id="96033783_1">
            <lane id="96033783_1_0"/>
            <lane id="96033783_1_1">
                <vehicle id="flow2_0" pos="50.39" speed="7.89"/>
            </lane>
        </edge>
        <edge id="96033869_2">
            <lane id="96033869_2_0">
                <vehicle id="flow1_0" pos="5.80" speed="9.21"/>
            </lane>
            <lane id="96033869_2_1"/>
        </edge>
        <edge id="96033902_1">
            <lane id="96033902_1_0">
                <vehicle id="flow1_1" pos="18.07" speed="5.27"/>
            </lane>
            <lane id="96033902_1_1"/>
        </edge>
    </timestep>
    <timestep time="12.00">
        <edge id="96033765_1">
            <lane id="96033765_1_0">
                <vehicle id="flow0_1" pos="26.72" speed="8.00"/>
            </lane>
            <lane id="96033765_1_1"/>
        </edge>
        <edge id="96033774_1">
            <lane id="96033774_1_0"/>
            <lane id="96033774_1_1">
                <vehicle id="flow0_0" pos="5.85" speed="19.25"/>
            </lane>
        </edge>
        <edge id="96033779_1">
            <lane id="96033779_1_0">
                <vehicle id="flow2_1" pos="26.25" speed="7.71"/>
            </lane>
            <lane id="96033779_1_1"/>
        </edge>
        <edge id="96033783_1">
            <lane id="96033783_1_0"/>
            <lane id="96033783_1_1">
                <vehicle id="flow2_0" pos="54.47" speed="4.08"/>
            </lane>
        </edge>
        <edge id="96033869_2">
            <lane id="96033869_2_0">
                <vehicle id="flow1_0" pos="16.98" speed="11.18"/>
            </lane>
            <lane id="96033869_2_1"/>
        </edge>
        <edge id="96033902_1">
            <lane id="96033902_1_0">
                <vehicle id="flow1_1" pos="25.47" speed="7.40"/>
            </lane>
            <lane id="96033902_1_1"/>
        </edge>
    </timestep>
    <timestep time="13.00">
        <edge id=":node85_2">
            <lane id=":node85_2_0">
                <vehicle id="flow2_0" pos="2.49" speed="5.72"/>
            </lane>
        </edge>
        <edge id=":node89_7">
            <lane id=":node89_7_0">
                <vehicle id="flow2_1" pos="2.67" speed="9.23"/>
            </lane>
        </edge>
        <edge id="96033765_1">
            <lane id="96033765_1_0">
                <vehicle id="flow0_1" pos="36.36" speed="9.64"/>
            </lane>
            <lane id="96033765_1_1"/>
        </edge>
        <edge id="96033774_1">
            <lane id="96033774_1_0"/>
            <lane id="96033774_1_1">
                <vehicle id="flow0_0" pos="25.76" speed="19.92"/>
            </lane>
        </edge>
        <edge id="96033869_2">
            <lane id="96033869_2_0">
                <vehicle id="flow1_0" pos="29.64" speed="12.66"/>
            </lane>
            <lane id="96033869_2_1"/>
        </edge>
        <edge id="96033902_1">
            <lane id="96033902_1_0">
                <vehicle id="flow1_1" pos="34.14" speed="8.67"/>
            </lane>
            <lane id="96033902_1_1"/>
        </edge>
    </timestep>
    <timestep time="14.00">
        <edge id=":node85_2">
            <lane id=":node85_2_0">
                <vehicle id="flow2_0" pos="9.50" speed="7.01"/>
            </lane>
        </edge>
        <edge id="96033765_1">
            <lane id="96033765_1_0">
                <vehicle id="flow0_1" pos="47.71" speed="11.35"/>
            </lane>
            <lane id="96033765_1_1"/>
        </edge>
        <edge id="96033774_1">
            <lane id="96033774_1_0"/>
            <lane id="96033774_1_1">
                <vehicle id="flow0_0" pos="44.87" speed="19.11"/>
            </lane>
        </edge>
        <edge id="96033780_1">
            <lane id="96033780_1_0"/>
            <lane id="96033780_1_1">
                <vehicle id="flow2_1" pos="9.15" speed="11.30"/>
            </lane>
        </edge>
        <edge id="96033869_2">
            <lane id="96033869_2_0">
                <vehicle id="flow1_0" pos="44.11" speed="14.47"/>
            </lane>
            <lane id="96033869_2_1"/>
        </edge>
        <edge id="96033902_1">
            <lane id="96033902_1_0">
                <vehicle id="flow1_1" pos="44.46" speed="10.32"/>
            </lane>
            <lane id="96033902_1_1"/>
        </edge>
    </timestep>
    <timestep time="15.00">
        <edge id="96033765_1">
            <lane id="96033765_1_0">
                <vehicle id="flow0_2" pos="7.60" speed="0.00"/>
                <vehicle id="flow0_1" pos="61.22" speed="13.50"/>
            </lane>
            <lane id="96033765_1_1"/>
        </edge>
        <edge id="96033774_1">
            <lane id="96033774_1_0"/>
            <lane id="96033774_1_1">
                <vehicle id="flow0_0" pos="62.25" speed="17.38"/>
            </lane>
        </edge>
        <edge id="96033779_1">
            <lane id="96033779_1_0">
                <vehicle id="flow2_2" pos="7.60" speed="0.00"/>
            </lane>
            <lane id="96033779_1_1"/>
        </edge>
        <edge id="96033782_2">
            <lane id="96033782_2_0"/>
            <lane id="96033782_2_1">
                <vehicle id="flow2_0" pos="1.89" speed="8.73"/>
            </lane>
        </edge>
        <edge id="96033783_1">
            <lane id="96033783_1_0"/>
            <lane id="96033783_1_1">
                <vehicle id="flow2_1" pos="0.65" speed="13.29"/>
            </lane>
        </edge>
        <edge id="96033869_2">
            <lane id="96033869_2_0">
                <vehicle id="flow1_0" pos="60.49" speed="16.38"/>
            </lane>
            <lane id="96033869_2_1"/>
        </edge>
        <edge id="96033902_1">
            <lane id="96033902_1_0">
                <vehicle id="flow1_2" pos="7.60" speed="0.00"/>
                <vehicle id="flow1_1" pos="56.22" speed="11.76"/>
            </lane>
            <lane id="96033902_1_1"/>
        </edge>
    </timestep>
    <timestep time="16.00">
        <edge id="96033765_1">
            <lane id="96033765_1_0">
                <vehicle id="flow0_2" pos="9.78" speed="2.18"/>
            </lane>
            <lane id="96033765_1_1">
                <vehicle id="flow0_1" pos="76.73" speed="15.51"/>
            </lane>
        </edge>
        <edge id="96033774_1">
            <lane id="96033774_1_0"/>
            <lane id="96033774_1_1">
                <vehicle id="flow0_0" pos="75.43" speed="13.18"/>
            </lane>
        </edge>
        <edge id="96033779_1">
            <lane id="96033779_1_0">
                <vehicle id="flow2_2" pos="9.04" speed="1.44"/>
            </lane>
            <lane id="96033779_1_1"/>
        </edge>
        <edge id="96033782_2">
            <lane id="96033782_2_0"/>
            <lane id="96033782_2_1">
                <vehicle id="flow2_0" pos="10.24" speed="8.36"/>
            </lane>
        </edge>
        <edge id="96033783_1">
            <lane id="96033783_1_0"/>
            <lane id="96033783_1_1">
                <vehicle id="flow2_1" pos="15.86" speed="15.22"/>
            </lane>
        </edge>
        <edge id="96033869_2">
            <lane id="96033869_2_0">
                <vehicle id="flow1_0" pos="78.57" speed="18.07"/>
            </lane>
            <lane id="96033869_2_1"/>
        </edge>
        <edge id="96033902_1">
            <lane id="96033902_1_0">
                <vehicle id="flow1_2" pos="9.49" speed="1.89"/>
                <vehicle id="flow1_1" pos="64.46" speed="8.24"/>
            </lane>
            <lane id="96033902_1_1"/>
        </edge>
    </timestep>
    <timestep time="17.00">
        <edge id="96033765_1">
            <lane id="96033765_1_0">
                <vehicle id="flow0_2" pos="14.21" speed="4.44"/>
            </lane>
            <lane id="96033765_1_1">
                <vehicle id="flow0_1" pos="94.09" speed="17.36"/>
            </lane>
        </edge>
        <edge id="96033774_1">
            <lane id="96033774_1_0"/>
            <lane id="96033774_1_1">
                <vehicle id="flow0_0" pos="85.75" speed="10.32"/>
            </lane>
        </edge>
        <edge id="96033779_1">
            <lane id="96033779_1_0">
                <vehicle id="flow2_2" pos="12.97" speed="3.93"/>
            </lane>
            <lane id="96033779_1_1"/>
        </edge>
        <edge id="96033782_2">
            <lane id="96033782_2_0"/>
            <lane id="96033782_2_1">
                <vehicle id="flow2_0" pos="15.24" speed="5.00"/>
            </lane>
        </edge>
        <edge id="96033783_1">
            <lane id="96033783_1_0"/>
            <lane id="96033783_1_1">
                <vehicle id="flow2_1" pos="30.55" speed="14.69"/>
            </lane>
        </edge>
        <edge id="96033869_2">
            <lane id="96033869_2_0">
                <vehicle id="flow1_0" pos="98.30" speed="19.73"/>
            </lane>
            <lane id="96033869_2_1"/>
        </edge>
        <edge id="96033902_1">
            <lane id="96033902_1_0">
                <vehicle id="flow1_2" pos="13.08" speed="3.59"/>
                <vehicle id="flow1_1" pos="69.16" speed="4.70"/>
            </lane>
            <lane id="96033902_1_1"/>
        </edge>
    </timestep>
    <timestep time="18.00">
        <edge id=":node43_15">
            <lane id=":node43_15_0">
                <vehicle id="flow2_0" pos="3.84" speed="6.82"/>
            </lane>
        </edge>
        <edge id=":node58_5">
            <lane id=":node58_5_0">
                <vehicle id="flow1_1" pos="3.57" speed="7.10"/>
            </lane>
        </edge>
        <edge id="96033765_1">
            <lane id="96033765_1_0">
                <vehicle id="flow0_2" pos="20.66" speed="6.44"/>
            </lane>
            <lane id="96033765_1_1">
                <vehicle id="flow0_1" pos="112.83" speed="18.74"/>
            </lane>
        </edge>
        <edge id="96033774_1">
            <lane id="96033774_1_0"/>
            <lane id="96033774_1_1">
                <vehicle id="flow0_0" pos="92.33" speed="6.58"/>
            </lane>
        </edge>
        <edge id="96033779_1">
            <lane id="96033779_1_0">
                <vehicle id="flow2_2" pos="18.89" speed="5.92"/>
            </lane>
            <lane id="96033779_1_1"/>
        </edge>
        <edge id="96033783_1">
            <lane id="96033783_1_0"/>
            <lane id="96033783_1_1">
                <vehicle id="flow2_1" pos="41.42" speed="10.87"/>
            </lane>
        </edge>
        <edge id="96033869_2">
            <lane id="96033869_2_0">
                <vehicle id="flow1_0" pos="117.91" speed="19.61"/>
            </lane>
            <lane id="96033869_2_1"/>
        </edge>
        <edge id="96033902_1">
            <lane id="96033902_1_0">
                <vehicle id="flow1_2" pos="17.98" speed="4.90"/>
            </lane>
            <lane id="96033902_1_1"/>
        </edge>
    </timestep>
    <timestep time="19.00">
        <edge id=":node43_15">
            <lane id=":node43_15_0">
                <vehicle id="flow2_0" pos="12.20" speed="8.36"/>
            </lane>
        </edge>
        <edge id="96033765_1">
            <lane id="96033765_1_0">
                <vehicle id="flow0_2" pos="28.90" speed="8.25"/>
            </lane>
            <lane id="96033765_1_1">
                <vehicle id="flow0_1" pos="132.55" speed="19.72"/>
            </lane>
        </edge>
        <edge id="96033774_1">
            <lane id="96033774_1_0"/>
            <lane id="96033774_1_1">
                <vehicle id="flow0_0" pos="95.96" speed="3.63"/>
            </lane>
        </edge>
        <edge id="96033779_1">
            <lane id="96033779_1_0">
                <vehicle id="flow2_2" pos="27.07" speed="8.18"/>
            </lane>
            <lane id="96033779_1_1"/>
        </edge>
        <edge id="96033783_1">
            <lane id="96033783_1_0"/>
            <lane id="96033783_1_1">
                <vehicle id="flow2_1" pos="48.84" speed="7.41"/>
            </lane>
        </edge>
        <edge id="96033869_2">
            <lane id="96033869_2_0">
                <vehicle id="flow1_1" pos="5.27" speed="8.92"/>
                <vehicle id="flow1_0" pos="137.05" speed="19.14"/>
            </lane>
            <lane id="96033869_2_1"/>
        </edge>
        <edge id="96033902_1">
            <lane id="96033902_1_0">
                <vehicle id="flow1_2" pos="24.81" speed="6.82"/>
            </lane>
            <lane id="96033902_1_1"/>
        </edge>
    </timestep>
    <timestep time="20.00">
        <edge id=":node89_7">
            <lane id=":node89_7_0">
                <vehicle id="flow2_2" pos="4.11" speed="9.84"/>
            </lane>
        </edge>
        <edge id="96033765_1">
            <lane id="96033765_1_0">
                <vehicle id="flow0_2" pos="38.67" speed="9.77"/>
            </lane>
            <lane id="96033765_1_1"/>
        </edge>
        <edge id="96033774_1">
            <lane id="96033774_1_0"/>
            <lane id="96033774_1_1">
                <vehicle id="flow0_1" pos="0.57" speed="19.19"/>
                <vehicle id="flow0_0" pos="97.93" speed="1.97"/>
            </lane>
        </edge>
        <edge id="96033783_1">
            <lane id="96033783_1_0"/>
            <lane id="96033783_1_1">
                <vehicle id="flow2_1" pos="53.17" speed="4.34"/>
            </lane>
        </edge>
        <edge id="96033832_2">
            <lane id="96033832_2_0"/>
            <lane id="96033832_2_1">
                <vehicle id="flow2_0" pos="0.17" speed="10.14"/>
            </lane>
        </edge>
        <edge id="96033869_2">
            <lane id="96033869_2_0">
                <vehicle id="flow1_1" pos="16.01" speed="10.74"/>
                <vehicle id="flow1_0" pos="156.74" speed="19.68"/>
            </lane>
            <lane id="96033869_2_1"/>
        </edge>
        <edge id="96033902_1">
            <lane id="96033902_1_0">
                <vehicle id="flow1_2" pos="33.86" speed="9.05"/>
            </lane>
            <lane id="96033902_1_1"/>
        </edge>
    </timestep>
    <timestep time="21.00">
        <edge id="96033765_1">
            <lane id="96033765_1_0">
                <vehicle id="flow0_2" pos="50.52" speed="11.85"/>
            </lane>
            <lane id="96033765_1_1"/>
        </edge>
        <edge id="96033774_1">
            <lane id="96033774_1_0"/>
            <lane id="96033774_1_1">
                <vehicle id="flow0_1" pos="20.30" speed="19.74"/>
                <vehicle id="flow0_0" pos="98.48" speed="0.55"/>
            </lane>
        </edge>
        <edge id="96033780_1">
            <lane id="96033780_1_0"/>
            <lane id="96033780_1_1">
                <vehicle id="flow2_2" pos="10.96" speed="11.68"/>
            </lane>
        </edge>
        <edge id="96033783_1">
            <lane id="96033783_1_0"/>
            <lane id="96033783_1_1">
                <vehicle id="flow2_1" pos="55.52" speed="2.34"/>
            </lane>
        </edge>
        <edge id="96033832_2">
            <lane id="96033832_2_0"/>
            <lane id="96033832_2_1">
                <vehicle id="flow2_0" pos="11.82" speed="11.65"/>
            </lane>
        </edge>
        <edge id="96033869_2">
            <lane id="96033869_2_0">
                <vehicle id="flow1_1" pos="28.82" speed="12.81"/>
                <vehicle id="flow1_0" pos="176.07" speed="19.34"/>
            </lane>
            <lane id="96033869_2_1"/>
        </edge>
        <edge id="96033902_1">
            <lane id="96033902_1_0">
                <vehicle id="flow1_2" pos="44.22" speed="10.36"/>
            </lane>
            <lane id="96033902_1_1"/>
        </edge>
    </timestep>
    <timestep time="22.00">
        <edge id=":node85_2">
            <lane id=":node85_2_0">
                <vehicle id="flow2_1" pos="2.20" speed="4.38"/>
            </lane>
        </edge>
        <edge id=":node89_2">
            <lane id=":node89_2_0">
                <vehicle id="flow0_0" pos="1.53" speed="1.92"/>
            </lane>
        </edge>
        <edge id="96033765_1">
            <lane id="96033765_1_0">
                <vehicle id="flow0_2" pos="63.59" speed="13.07"/>
            </lane>
            <lane id="96033765_1_1"/>
        </edge>
        <edge id="96033774_1">
            <lane id="96033774_1_0"/>
            <lane id="96033774_1_1">
                <vehicle id="flow0_1" pos="39.68" speed="19.37"/>
            </lane>
        </edge>
        <edge id="96033783_1">
            <lane id="96033783_1_0"/>
            <lane id="96033783_1_1">
                <vehicle id="flow2_2" pos="2.51" speed="13.34"/>
            </lane>
        </edge>
        <edge id="96033832_2">
            <lane id="96033832_2_0"/>
            <lane id="96033832_2_1">
                <vehicle id="flow2_0" pos="25.60" speed="13.77"/>
            </lane>
        </edge>
        <edge id="96033869_2">
            <lane id="96033869_2_0">
                <vehicle id="flow1_1" pos="42.89" speed="14.07"/>
                <vehicle id="flow1_0" pos="195.93" speed="19.86"/>
            </lane>
            <lane id="96033869_2_1"/>
        </edge>
        <edge id="96033902_1">
            <lane id="96033902_1_0">
                <vehicle id="flow1_2" pos="55.98" speed="11.76"/>
            </lane>
            <lane id="96033902_1_1"/>
        </edge>
    </timestep>
    <timestep time="23.00">
        <edge id=":node85_2">
            <lane id=":node85_2_0">
                <vehicle id="flow2_1" pos="8.35" speed="6.15"/>
            </lane>
        </edge>
        <edge id=":node89_2">
            <lane id=":node89_2_0">
                <vehicle id="flow0_0" pos="5.85" speed="4.32"/>
            </lane>
        </edge>
        <edge id="96033765_1">
            <lane id="96033765_1_0">
                <vehicle id="flow0_3" pos="7.60" speed="0.00"/>
            </lane>
            <lane id="96033765_1_1">
                <vehicle id="flow0_2" pos="78.08" speed="14.49"/>
            </lane>
        </edge>
        <edge id="96033774_1">
            <lane id="96033774_1_0"/>
            <lane id="96033774_1_1">
                <vehicle id="flow0_1" pos="56.95" speed="17.27"/>
            </lane>
        </edge>
        <edge id="96033779_1">
            <lane id="96033779_1_0">
                <vehicle id="flow2_3" pos="7.60" speed="0.00"/>
            </lane>
            <lane id="96033779_1_1"/>
        </edge>
        <edge id="96033783_1">
            <lane id="96033783_1_0"/>
            <lane id="96033783_1_1">
                <vehicle id="flow2_2" pos="17.29" speed="14.78"/>
            </lane>
        </edge>
        <edge id="96033832_2">
            <lane id="96033832_2_0"/>
            <lane id="96033832_2_1">
                <vehicle id="flow2_0" pos="40.16" speed="14.56"/>
            </lane>
        </edge>
        <edge id="96033869_2">
            <lane id="96033869_2_0">
                <vehicle id="flow1_1" pos="58.76" speed="15.87"/>
                <vehicle id="flow1_0" pos="215.58" speed="19.65"/>
            </lane>
            <lane id="96033869_2_1"/>
        </edge>
        <edge id="96033902_1">
            <lane id="96033902_1_0">
                <vehicle id="flow1_3" pos="7.60" speed="0.00"/>
                <vehicle id="flow1_2" pos="63.86" speed="7.89"/>
            </lane>