D 62.768849469 _2_ IFQ  ARP 7887 gpsr 35 [0 ffffffff 2 800] ------- [23:255 66:255 31 66] 
D 71.212886633 _113_ IFQ  ARP 7887 gpsr 35 [0 ffffffff 71 800] ------- [23:255 66:255 31 66] 
D 71.219915219 _26_ IFQ  ARP 7887 gpsr 35 [0 ffffffff 1a 800] ------- [23:255 66:255 30 66] 
D 71.222157713 _110_ IFQ  ARP 7887 gpsr 35 [0 ffffffff 6e 800] ------- [23:255 66:255 30 66] 
D 71.222157713 _104_ IFQ  ARP 7887 gpsr 35 [0 ffffffff 68 800] ------- [23:255 66:255 30 66] 
D 71.222157713 _96_ IFQ  ARP 7887 gpsr 35 [0 ffffffff 60 800] ------- [23:255 66:255 30 66] 
D 71.222157713 _87_ IFQ  ARP 7887 gpsr 35 [0 ffffffff 57 800] ------- [23:255 66:255 30 66] 
D 71.222157713 _82_ IFQ  ARP 7887 gpsr 35 [0 ffffffff 52 800] ------- [23:255 66:255 30 66] 
D 71.222157713 _77_ IFQ  ARP 7887 gpsr 35 [0 ffffffff 4d 800] ------- [23:255 66:255 30 66] 
D 71.222157713 _72_ IFQ  ARP 7887 gpsr 35 [0 ffffffff 48 800] ------- [23:255 66:255 30 66] 
D 71.222157713 _69_ IFQ  ARP 7887 gpsr 35 [0 ffffffff 45 800] ------- [23:255 66:255 30 66] 
D 71.222157713 _62_ IFQ  ARP 7887 gpsr 35 [0 ffffffff 3e 800] ------- [23:255 66:255 30 66] 
D 71.222157713 _57_ IFQ  ARP 7887 gpsr 35 [0 ffffffff 39 800] ------- [23:255 66:255 30 66] 
D 71.222157713 _54_ IFQ  ARP 7887 gpsr 35 [0 ffffffff 36 800] ------- [23:255 66:255 30 66] 
D 71.222157713 _48_ IFQ  ARP 7887 gpsr 35 [0 ffffffff 30 800] ------- [23:255 66:255 30 66] 
D 71.222157713 _43_ IFQ  ARP 7887 gpsr 35 [0 ffffffff 2b 800] ------- [23:255 66:255 30 66] 
D 71.222157713 _38_ IFQ  ARP 7887 gpsr 35 [0 ffffffff 26 800] ------- [23:255 66:255 30 66] 
D 71.222157713 _32_ IFQ  ARP 7887 gpsr 35 [0 ffffffff 20 800] ------- [23:255 66:255 30 66] 
D 71.222157713 _29_ IFQ  ARP 7887 gpsr 35 [0 ffffffff 1d 800] ------- [23:255 66:255 30 66] 
D 72.902222872 _26_ IFQ  ARP 9227 gpsr 35 [0 ffffffff 1a 800] ------- [23:255 66:255 30 66] 
D 74.116406561 _54_ IFQ  ARP 9227 gpsr 35 [0 ffffffff 36 800] ------- [23:255 66:255 30 66] 
D 82.494676788 _29_ IFQ  ARP 9227 gpsr 35 [0 ffffffff 1d 800] ------- [23:255 66:255 30 66] 
D 82.494676798 _113_ IFQ  ARP 9227 gpsr 35 [0 ffffffff 71 800] ------- [23:255 66:255 30 66] 
D 82.513372957 _32_ IFQ  ARP 9227 gpsr 35 [0 ffffffff 20 800] ------- [23:255 66:255 30 66] 
D 82.513372959 _110_ IFQ  ARP 9227 gpsr 35 [0 ffffffff 6e 800] ------- [23:255 66:255 30 66] 
D 82.513372959 _104_ IFQ  ARP 9227 gpsr 35 [0 ffffffff 68 800] ------- [23:255 66:255 30 66] 
D 82.513372959 _96_ IFQ  ARP 9227 gpsr 35 [0 ffffffff 60 800] ------- [23:255 66:255 30 66] 
D 82.513372959 _87_ IFQ  ARP 9227 gpsr 35 [0 ffffffff 57 800] ------- [23:255 66:255 30 66] 
D 82.513372959 _77_ IFQ  ARP 9227 gpsr 35 [0 ffffffff 4d 800] ------- [23:255 66:255 30 66] 
D 82.513372959 _48_ IFQ  ARP 9227 gpsr 35 [0 ffffffff 30 800] ------- [23:255 66:255 30 66] 
 30 --> 70 
  send packet : 16
  receive packet : 4
  forward packet : 0
  drop  packet : 0
 23 --> 66 
  send packet : 16
  receive packet : 11
  forward packet : 0
  drop  packet : 30
 1 --> 123 
  send packet : 16
  receive packet : 15
  forward packet : 0
  drop  packet : 0
 24 --> 118 
  send packet : 16
  receive packet : 16
  forward packet : 0
  drop  packet : 0
 117 --> 121 
  send packet : 18
  receive packet : 17
  forward packet : 0
  drop  packet : 0
 118 --> 127 
  send packet : 14
  receive packet : 14
  forward packet : 0
  drop  packet : 0
 116 --> 125 
  send packet : 17
  receive packet : 9
  forward packet : 0
  drop  packet : 0
 123 --> 117 
  send packet : 14
  receive packet : 14
  forward packet : 0
  drop  packet : 0
 117 --> 121 
  send packet : 18
  receive packet : 17
  forward packet : 0
  drop  packet : 0
 118 --> 127 
  send packet : 14
  receive packet : 14
  forward packet : 0
  drop  packet : 0
 116 --> 125 
  send packet : 17
  receive packet : 9
  forward packet : 0
  drop  packet : 0
 123 --> 117 
  send packet : 14
  receive packet : 14
  forward packet : 0
  drop  packet : 0
